FORMAT
type: ensight gold

GEOMETRY
model:          data/00000005/geometry

VARIABLE
vector per node:    1  U               data/********/U
scalar per node:    1  epsilon         data/********/epsilon
scalar per node:    1  k               data/********/k
scalar per node:    1  p               data/********/p

TIME
time set:               1
number of steps:        80
filename numbers:
 5            10           15           20           25           30          
 35           40           45           50           55           60          
 65           70           75           80           85           90          
 95           100          105          110          115          120         
 125          130          135          140          145          150         
 155          160          165          170          175          180         
 185          190          195          200          205          210         
 215          220          225          230          235          240         
 245          250          255          260          265          270         
 275          280          285          290          295          300         
 305          310          315          320          325          330         
 335          340          345          350          355          360         
 365          370          375          380          385          390         
 395          400         
time values:
 5.00000e+00  1.00000e+01  1.50000e+01  2.00000e+01  2.50000e+01  3.00000e+01 
 3.50000e+01  4.00000e+01  4.50000e+01  5.00000e+01  5.50000e+01  6.00000e+01 
 6.50000e+01  7.00000e+01  7.50000e+01  8.00000e+01  8.50000e+01  9.00000e+01 
 9.50000e+01  1.00000e+02  1.05000e+02  1.10000e+02  1.15000e+02  1.20000e+02 
 1.25000e+02  1.30000e+02  1.35000e+02  1.40000e+02  1.45000e+02  1.50000e+02 
 1.55000e+02  1.60000e+02  1.65000e+02  1.70000e+02  1.75000e+02  1.80000e+02 
 1.85000e+02  1.90000e+02  1.95000e+02  2.00000e+02  2.05000e+02  2.10000e+02 
 2.15000e+02  2.20000e+02  2.25000e+02  2.30000e+02  2.35000e+02  2.40000e+02 
 2.45000e+02  2.50000e+02  2.55000e+02  2.60000e+02  2.65000e+02  2.70000e+02 
 2.75000e+02  2.80000e+02  2.85000e+02  2.90000e+02  2.95000e+02  3.00000e+02 
 3.05000e+02  3.10000e+02  3.15000e+02  3.20000e+02  3.25000e+02  3.30000e+02 
 3.35000e+02  3.40000e+02  3.45000e+02  3.50000e+02  3.55000e+02  3.60000e+02 
 3.65000e+02  3.70000e+02  3.75000e+02  3.80000e+02  3.85000e+02  3.90000e+02 
 3.95000e+02  4.00000e+02 
# end
